; NPT equilibration template: 1 ns at 300 K and 1 bar
define                  = -DPOSRES
integrator              = md
dt                      = 0.002
nsteps                  = 500000

continuation            = yes
constraint_algorithm    = lincs
constraints             = h-bonds
lincs_iter              = 1
lincs_order             = 4

cutoff-scheme           = Verlet
nstlist                 = 20
coulombtype             = PME
rcoulomb                = 1.0
vdwtype                 = Cut-off
rvdw                    = 1.0
pbc                     = xyz

tcoupl                  = V-rescale
tc-grps                 = Protein_LIG Water_and_ions
tau_t                   = 0.1 0.1
ref_t                   = 300 300

pcoupl                  = C-rescale
pcoupltype              = isotropic
tau_p                   = 5.0
ref_p                   = 1.0
compressibility         = 4.5e-5

gen_vel                 = no
nstenergy               = 500
nstlog                  = 500
nstxout-compressed      = 500

