; NVT equilibration template: 100 ps at 300 K
define                  = -DPOSRES
integrator              = md
dt                      = 0.002
nsteps                  = 50000

continuation            = no
constraint_algorithm    = lincs
constraints             = h-bonds
lincs_iter              = 1
lincs_order             = 4

cutoff-scheme           = Verlet
nstlist                 = 20
coulombtype             = PME
rcoulomb                = 1.0
vdwtype                 = Cut-off
rvdw                    = 1.0
pbc                     = xyz

tcoupl                  = V-rescale
tc-grps                 = Protein_LIG Water_and_ions
tau_t                   = 0.1 0.1
ref_t                   = 300 300

pcoupl                  = no
gen_vel                 = yes
gen_temp                = 300
gen_seed                = -1

nstenergy               = 500
nstlog                  = 500
nstxout-compressed      = 500

