; Production template: 20 ns. Extend only after validating equilibration.
integrator              = md
dt                      = 0.002
nsteps                  = 10000000

continuation            = yes
constraint_algorithm    = lincs
constraints             = h-bonds
lincs_iter              = 1
lincs_order             = 4

cutoff-scheme           = Verlet
nstlist                 = 20
coulombtype             = PME
rcoulomb                = 1.0
vdwtype                 = Cut-off
rvdw                    = 1.0
pbc                     = xyz

tcoupl                  = V-rescale
tc-grps                 = Protein_LIG Water_and_ions
tau_t                   = 0.1 0.1
ref_t                   = 300 300

pcoupl                  = C-rescale
pcoupltype              = isotropic
tau_p                   = 5.0
ref_p                   = 1.0
compressibility         = 4.5e-5

gen_vel                 = no
nstenergy               = 5000
nstlog                  = 5000
nstxout-compressed      = 5000
compressed-x-grps       = System

